# vtk DataFile Version 2.0
Particle Simulation Data
ASCII
DATASET UNSTRUCTURED_GRID
POINTS 10 double
0.51204 2.926 3.19698
0.87597 2.03399 -0.32498
2.39105 -0.94304 1.27601
1.64903 -0.743 3.41195
2.28498 1.18804 0.65699
3.32895 1.91102 2.06703
-0.67799 3.06097 0.408
1.13204 0.24595 2.80899
2.77302 2.11096 -0.92797
2.00999 3.23705 1.874
CELLS 0 0
CELL_TYPES 0
POINT_DATA 10
VECTORS velocity float
4 0 2
-3 -1 2
5 -4 1
3 0 5
-2 4 -1
5 2 3
1 3 0
4 -5 -1
2 -4 3
-1 -5 0
VECTORS rotation float
-4 2 0
-3 4 -5
1 -2 3
0 5 -1
2 -4 3
-1 5 0
4 -3 -2
1 0 2
-5 4 -2
3 1 -4
